TITLE = "circ_SE_N30_dt0.05_01"
VARIABLES = "X" "Y" "U"
ZONE ZONETYPE=ORDERED, I=100, J=100, DATAPACKING=POINT
    -1.00000000	    -1.00000000	     0.00000070
    -0.97979798	    -1.00000000	     0.00000004
    -0.95959596	    -1.00000000	     0.00000005
    -0.93939394	    -1.00000000	     0.00000003
    -0.91919192	    -1.00000000	     0.00000034
    -0.89898990	    -1.00000000	     0.00000069
    -0.87878788	    -1.00000000	     0.00000105
    -0.85858586	    -1.00000000	     0.00000169
    -0.83838384	    -1.00000000	     0.00000290
    -0.81818182	    -1.00000000	     0.00000486
    -0.79797980	    -1.00000000	     0.00000780
    -0.77777778	    -1.00000000	     0.00001203
    -0.75757576	    -1.00000000	     0.00001808
    -0.73737374	    -1.00000000	     0.00002655
    -0.71717172	    -1.00000000	     0.00003810
    -0.69696970	    -1.00000000	     0.00005332
    -0.67676768	    -1.00000000	     0.00007268
    -0.65656566	    -1.00000000	     0.00009644
    -0.63636364	    -1.00000000	     0.00012463
    -0.61616162	    -1.00000000	     0.00015686
    -0.59595960	    -1.00000000	     0.00019237
    -0.57575758	    -1.00000000	     0.00022988
    -0.55555556	    -1.00000000	     0.00026766
    -0.53535354	    -1.00000000	     0.00030365
    -0.51515152	    -1.00000000	     0.00033558
    -0.49494949	    -1.00000000	     0.00036128
    -0.47474747	    -1.00000000	     0.00037885
    -0.45454545	    -1.00000000	     0.00038699
    -0.43434343	    -1.00000000	     0.00038508
    -0.41414141	    -1.00000000	     0.00037329
    -0.39393939	    -1.00000000	     0.00035256
    -0.37373737	    -1.00000000	     0.00032443
    -0.35353535	    -1.00000000	     0.00029090
    -0.33333333	    -1.00000000	     0.00025417
    -0.31313131	    -1.00000000	     0.00021641
    -0.29292929	    -1.00000000	     0.00017957
    -0.27272727	    -1.00000000	     0.00014522
    -0.25252525	    -1.00000000	     0.00011449
    -0.23232323	    -1.00000000	     0.00008800
    -0.21212121	    -1.00000000	     0.00006599
    -0.19191919	    -1.00000000	     0.00004830
    -0.17171717	    -1.00000000	     0.00003454
    -0.15151515	    -1.00000000	     0.00002415
    -0.13131313	    -1.00000000	     0.00001653
    -0.11111111	    -1.00000000	     0.00001108
    -0.09090909	    -1.00000000	     0.00000727
    -0.07070707	    -1.00000000	     0.00000467
    -0.05050505	    -1.00000000	     0.00000292
    -0.03030303	    -1.00000000	     0.00000178
    -0.01010101	    -1.00000000	     0.00000105
     0.01010101	    -1.00000000	     0.00000061
     0.03030303	    -1.00000000	     0.00000036
     0.05050505	    -1.00000000	     0.00000022
     0.07070707	    -1.00000000	     0.00000015
     0.09090909	    -1.00000000	     0.00000012
     0.11111111	    -1.00000000	     0.00000009
     0.13131313	    -1.00000000	     0.00000006
     0.15151515	    -1.00000000	     0.00000003
     0.17171717	    -1.00000000	    -0.00000001
     0.19191919	    -1.00000000	    -0.00000003
     0.21212121	    -1.00000000	    -0.00000004
     0.23232323	    -1.00000000	    -0.00000004
     0.25252525	    -1.00000000	    -0.00000002
     0.27272727	    -1.00000000	     0.00000001
     0.29292929	    -1.00000000	     0.00000003
     0.31313131	    -1.00000000	     0.00000004
     0.33333333	    -1.00000000	     0.00000004
     0.35353535	    -1.00000000	     0.00000002
     0.37373737	    -1.00000000	    -0.00000001
     0.39393939	    -1.00000000	    -0.00000003
     0.41414141	    -1.00000000	    -0.00000005
     0.43434343	    -1.00000000	    -0.00000004
     0.45454545	    -1.00000000	    -0.00000002
     0.47474747	    -1.00000000	     0.00000001
     0.49494949	    -1.00000000	     0.00000004
     0.51515152	    -1.00000000	     0.00000005
     0.53535354	    -1.00000000	     0.00000004
     0.55555556	    -1.00000000	     0.00000001
     0.57575758	    -1.00000000	    -0.00000003
     0.59595960	    -1.00000000	    -0.00000005
     0.61616162	    -1.00000000	    -0.00000005
     0.63636364	    -1.00000000	    -0.00000003
     0.65656566	    -1.00000000	     0.00000002
     0.67676768	    -1.00000000	     0.00000006
     0.69696970	    -1.00000000	     0.00000006
     0.71717172	    -1.00000000	     0.00000003
     0.73737374	    -1.00000000	    -0.00000003
     0.75757576	    -1.00000000	    -0.00000007
     0.77777778	    -1.00000000	    -0.00000007
     0.79797980	    -1.00000000	    -0.00000001
     0.81818182	    -1.00000000	     0.00000007
     0.83838384	    -1.00000000	     0.00000009
     0.85858586	    -1.00000000	     0.00000002
     0.87878788	    -1.00000000	    -0.00000009
     0.89898990	    -1.00000000	    -0.00000010
     0.91919192	    -1.00000000	     0.00000004
     0.93939394	    -1.00000000	     0.00000014
     0.95959596	    -1.00000000	    -0.00000006
     0.97979798	    -1.00000000	    -0.00000005
     1.00000000	    -1.00000000	    -0.00000066
    -1.00000000	    -0.97979798	     0.00000160
    -0.97979798	    -0.97979798	     0.00000004
    -0.95959596	    -0.97979798	     0.00000015
    -0.93939394	    -0.97979798	     0.00000015
    -0.91919192	    -0.97979798	     0.00000083
    -0.89898990	    -0.97979798	     0.00000163
    -0.87878788	    -0.97979798	     0.00000252
    -0.85858586	    -0.97979798	     0.00000411
    -0.83838384	    -0.97979798	     0.00000700
    -0.81818182	    -0.97979798	     0.00001168
    -0.79797980	    -0.97979798	     0.00001864
    -0.77777778	    -0.97979798	     0.00002868
    -0.75757576	    -0.97979798	     0.00004297
    -0.73737374	    -0.97979798	     0.00006290
    -0.71717172	    -0.97979798	     0.00008993
    -0.69696970	    -0.97979798	     0.00012536
    -0.67676768	    -0.97979798	     0.00017019
    -0.65656566	    -0.97979798	     0.00022494
    -0.63636364	    -0.97979798	     0.00028951
    -0.61616162	    -0.97979798	     0.00036294
    -0.59595960	    -0.97979798	     0.00044330
    -0.57575758	    -0.97979798	     0.00052759
    -0.55555556	    -0.97979798	     0.00061183
    -0.53535354	    -0.97979798	     0.00069129
    -0.51515152	    -0.97979798	     0.00076093
    -0.49494949	    -0.97979798	     0.00081594
    -0.47474747	    -0.97979798	     0.00085230
    -0.45454545	    -0.97979798	     0.00086726
    -0.43434343	    -0.97979798	     0.00085969
    -0.41414141	    -0.97979798	     0.00083024
    -0.39393939	    -0.97979798	     0.00078118
    -0.37373737	    -0.97979798	     0.00071614
    -0.35353535	    -0.97979798	     0.00063968
    -0.33333333	    -0.97979798	     0.00055672
    -0.31313131	    -0.97979798	     0.00047207
    -0.29292929	    -0.97979798	     0.00039001
    -0.27272727	    -0.97979798	     0.00031392
    -0.25252525	    -0.97979798	     0.00024618
    -0.23232323	    -0.97979798	     0.00018812
    -0.21212121	    -0.97979798	     0.00014010
    -0.19191919	    -0.97979798	     0.00010173
    -0.17171717	    -0.97979798	     0.00007205
    -0.15151515	    -0.97979798	     0.00004980
    -0.13131313	    -0.97979798	     0.00003361
    -0.11111111	    -0.97979798	     0.00002216
    -0.09090909	    -0.97979798	     0.00001425
    -0.07070707	    -0.97979798	     0.00000893
    -0.05050505	    -0.97979798	     0.00000544
    -0.03030303	    -0.97979798	     0.00000320
    -0.01010101	    -0.97979798	     0.00000181
     0.01010101	    -0.97979798	     0.00000100
     0.03030303	    -0.97979798	     0.00000055
     0.05050505	    -0.97979798	     0.00000033
     0.07070707	    -0.97979798	     0.00000023
     0.09090909	    -0.97979798	     0.00000018
     0.11111111	    -0.97979798	     0.00000014
     0.13131313	    -0.97979798	     0.00000010
     0.15151515	    -0.97979798	     0.00000004
     0.17171717	    -0.97979798	    -0.00000002
     0.19191919	    -0.97979798	    -0.00000007
     0.21212121	    -0.97979798	    -0.00000009
     0.23232323	    -0.97979798	    -0.00000007
     0.25252525	    -0.97979798	    -0.00000004
     0.27272727	    -0.97979798	     0.00000002
     0.29292929	    -0.97979798	     0.00000006
     0.31313131	    -0.97979798	     0.00000009
     0.33333333	    -0.97979798	     0.00000008
     0.35353535	    -0.97979798	     0.00000004
     0.37373737	    -0.97979798	    -0.00000001
     0.39393939	    -0.97979798	    -0.00000006
     0.41414141	    -0.97979798	    -0.00000009
     0.43434343	    -0.97979798	    -0.00000008
     0.45454545	    -0.97979798	    -0.00000004
     0.47474747	    -0.97979798	     0.00000002
     0.49494949	    -0.97979798	     0.00000007
     0.51515152	    -0.97979798	     0.00000010
     0.53535354	    -0.97979798	     0.00000008
     0.55555556	    -0.97979798	     0.00000002
     0.57575758	    -0.97979798	    -0.00000005
     0.59595960	    -0.97979798	    -0.00000010
     0.61616162	    -0.97979798	    -0.00000010
     0.63636364	    -0.97979798	    -0.00000005
     0.65656566	    -0.97979798	     0.00000003
     0.67676768	    -0.97979798	     0.00000011
     0.69696970	    -0.97979798	     0.00000012
     0.71717172	    -0.97979798	     0.00000006
     0.73737374	    -0.97979798	    -0.00000005
     0.75757576	    -0.97979798	    -0.00000014
     0.77777778	    -0.97979798	    -0.00000013
     0.79797980	    -0.97979798	    -0.00000001
     0.81818182	    -0.97979798	     0.00000014
     0.83838384	    -0.97979798	     0.00000017
     0.85858586	    -0.97979798	     0.00000003
     0.87878788	    -0.97979798	    -0.00000018
     0.89898990	    -0.97979798	    -0.00000018
     0.91919192	    -0.97979798	     0.00000011
     0.93939394	    -0.97979798	     0.00000026
     0.95959596	    -0.97979798	    -0.00000018
     0.97979798	    -0.97979798	    -0.00000006
     1.00000000	    -0.97979798	    -0.00000146
    -1.00000000	    -0.95959596	     0.00000058
    -0.97979798	    -0.95959596	     0.00000003
    -0.95959596	    -0.95959596	     0.00000005
    -0.93939394	    -0.95959596	     0.00000004
    -0.91919192	    -0.95959596	     0.00000030
    -0.89898990	    -0.95959596	     0.00000059
    -0.87878788	    -0.95959596	     0.00000091
    -0.85858586	    -0.95959596	     0.00000148
    -0.83838384	    -0.95959596	     0.00000251
    -0.81818182	    -0.95959596	     0.00000419
    -0.79797980	    -0.95959596	     0.00000670
    -0.77777778	    -0.95959596	     0.00001031
    -0.75757576	    -0.95959596	     0.00001545
    -0.73737374	    -0.95959596	     0.00002262
    -0.71717172	    -0.95959596	     0.00003236
    -0.69696970	    -0.95959596	     0.00004514
    -0.67676768	    -0.95959596	     0.00006135
    -0.65656566	    -0.95959596	     0.00008118
    -0.63636364	    -0.95959596	     0.00010461
    -0.61616162	    -0.95959596	     0.00013133
    -0.59595960	    -0.95959596	     0.00016065
    -0.57575758	    -0.95959596	     0.00019151
    -0.55555556	    -0.95959596	     0.00022247
    -0.53535354	    -0.95959596	     0.00025183
    -0.51515152	    -0.95959596	     0.00027775
    -0.49494949	    -0.95959596	     0.00029844
    -0.47474747	    -0.95959596	     0.00031241
    -0.45454545	    -0.95959596	     0.00031860
    -0.43434343	    -0.95959596	     0.00031656
    -0.41414141	    -0.95959596	     0.00030646
    -0.39393939	    -0.95959596	     0.00028908
    -0.37373737	    -0.95959596	     0.00026571
    -0.35353535	    -0.95959596	     0.00023800
    -0.33333333	    -0.95959596	     0.00020774
    -0.31313131	    -0.95959596	     0.00017670
    -0.29292929	    -0.95959596	     0.00014646
    -0.27272727	    -0.95959596	     0.00011831
    -0.25252525	    -0.95959596	     0.00009313
    -0.23232323	    -0.95959596	     0.00007146
    -0.21212121	    -0.95959596	     0.00005347
    -0.19191919	    -0.95959596	     0.00003902
    -0.17171717	    -0.95959596	     0.00002779
    -0.15151515	    -0.95959596	     0.00001934
    -0.13131313	    -0.95959596	     0.00001315
    -0.11111111	    -0.95959596	     0.00000874
    -0.09090909	    -0.95959596	     0.00000568
    -0.07070707	    -0.95959596	     0.00000360
    -0.05050505	    -0.95959596	     0.00000222
    -0.03030303	    -0.95959596	     0.00000133
    -0.01010101	    -0.95959596	     0.00000077
     0.01010101	    -0.95959596	     0.00000043
     0.03030303	    -0.95959596	     0.00000024
     0.05050505	    -0.95959596	     0.00000015
     0.07070707	    -0.95959596	     0.00000010
     0.09090909	    -0.95959596	     0.00000008
     0.11111111	    -0.95959596	     0.00000006
     0.13131313	    -0.95959596	     0.00000004
     0.15151515	    -0.95959596	     0.00000002
     0.17171717	    -0.95959596	    -0.00000001
     0.19191919	    -0.95959596	    -0.00000002
     0.21212121	    -0.95959596	    -0.00000003
     0.23232323	    -0.95959596	    -0.00000003
     0.25252525	    -0.95959596	    -0.00000002
     0.27272727	    -0.95959596	     0.00000000
     0.29292929	    -0.95959596	     0.00000002
     0.31313131	    -0.95959596	     0.00000003
     0.33333333	    -0.95959596	     0.00000003
     0.35353535	    -0.95959596	     0.00000002
     0.37373737	    -0.95959596	    -0.00000000
     0.39393939	    -0.95959596	    -0.00000002
     0.41414141	    -0.95959596	    -0.00000004
     0.43434343	    -0.95959596	    -0.00000003
     0.45454545	    -0.95959596	    -0.00000002
     0.47474747	    -0.95959596	     0.00000001
     0.49494949	    -0.95959596	     0.00000003
     0.51515152	    -0.95959596	     0.00000004
     0.53535354	    -0.95959596	     0.00000003
     0.55555556	    -0.95959596	     0.00000001
     0.57575758	    -0.95959596	    -0.00000002
     0.59595960	    -0.95959596	    -0.00000004
     0.61616162	    -0.95959596	    -0.00000004
     0.63636364	    -0.95959596	    -0.00000002
     0.65656566	    -0.95959596	     0.00000001
     0.67676768	    -0.95959596	     0.00000004
     0.69696970	    -0.95959596	     0.00000005
     0.71717172	    -0.95959596	     0.00000003
     0.73737374	    -0.95959596	    -0.00000002
     0.75757576	    -0.95959596	    -0.00000005
     0.77777778	    -0.95959596	    -0.00000005
     0.79797980	    -0.95959596	    -0.00000001
     0.81818182	    -0.95959596	     0.00000005
     0.83838384	    -0.95959596	     0.00000007
     0.85858586	    -0.95959596	     0.00000002
     0.87878788	    -0.95959596	    -0.00000007
     0.89898990	    -0.95959596	    -0.00000008
     0.91919192	    -0.95959596	     0.00000004
     0.93939394	    -0.95959596	     0.00000010
     0.95959596	    -0.95959596	    -0.00000005
     0.97979798	    -0.95959596	    -0.00000003
     1.00000000	    -0.95959596	    -0.00000054
    -1.00000000	    -0.93939394	     0.00000038
    -0.97979798	    -0.93939394	     0.00000001
    -0.95959596	    -0.93939394	     0.00000003
    -0.93939394	    -0.93939394	     0.00000002
    -0.91919192	    -0.93939394	     0.00000017
    -0.89898990	    -0.93939394	     0.00000035
    -0.87878788	    -0.93939394	     0.00000054
    -0.85858586	    -0.93939394	     0.00000087
    -0.83838384	    -0.93939394	     0.00000149
    -0.81818182	    -0.93939394	     0.00000250
    -0.79797980	    -0.93939394	     0.00000402
    -0.77777778	    -0.93939394	     0.00000621
    -0.75757576	    -0.93939394	     0.00000935
    -0.73737374	    -0.93939394	     0.00001375
    -0.71717172	    -0.93939394	     0.00001975
    -0.69696970	    -0.93939394	     0.00002767
    -0.67676768	    -0.93939394	     0.00003774
    -0.65656566	    -0.93939394	     0.00005013
    -0.63636364	    -0.93939394	     0.00006482
    -0.61616162	    -0.93939394	     0.00008164
    -0.59595960	    -0.93939394	     0.00010018
    -0.57575758	    -0.93939394	     0.00011977
    -0.55555556	    -0.93939394	     0.00013952
    -0.53535354	    -0.93939394	     0.00015835
    -0.51515152	    -0.93939394	     0.00017507
    -0.49494949	    -0.93939394	     0.00018855
    -0.47474747	    -0.93939394	     0.00019780
    -0.45454545	    -0.93939394	     0.00020213
    -0.43434343	    -0.93939394	     0.00020121
    -0.41414141	    -0.93939394	     0.00019513
    -0.39393939	    -0.93939394	     0.00018436
    -0.37373737	    -0.93939394	     0.00016971
    -0.35353535	    -0.93939394	     0.00015222
    -0.33333333	    -0.93939394	     0.00013303
    -0.31313131	    -0.93939394	     0.00011328
    -0.29292929	    -0.93939394	     0.00009400
    -0.27272727	    -0.93939394	     0.00007599
    -0.25252525	    -0.93939394	     0.00005987
    -0.23232323	    -0.93939394	     0.00004597
    -0.21212121	    -0.93939394	     0.00003442
    -0.19191919	    -0.93939394	     0.00002513
    -0.17171717	    -0.93939394	     0.00001791
    -0.15151515	    -0.93939394	     0.00001246
    -0.13131313	    -0.93939394	     0.00000848
    -0.11111111	    -0.93939394	     0.00000564
    -0.09090909	    -0.93939394	     0.00000366
    -0.07070707	    -0.93939394	     0.00000232
    -0.05050505	    -0.93939394	     0.00000143
    -0.03030303	    -0.93939394	     0.00000086
    -0.01010101	    -0.93939394	     0.00000050
     0.01010101	    -0.93939394	     0.00000028
     0.03030303	    -0.93939394	     0.00000016
     0.05050505	    -0.93939394	     0.00000009
     0.07070707	    -0.93939394	     0.00000007
     0.09090909	    -0.93939394	     0.00000005
     0.11111111	    -0.93939394	     0.00000004
     0.13131313	    -0.93939394	     0.00000003
     0.15151515	    -0.93939394	     0.00000001
     0.17171717	    -0.93939394	    -0.00000000
     0.19191919	    -0.93939394	    -0.00000002
     0.21212121	    -0.93939394	    -0.00000002
     0.23232323	    -0.93939394	    -0.00000002
     0.25252525	    -0.93939394	    -0.00000001
     0.27272727	    -0.93939394	     0.00000000
     0.29292929	    -0.93939394	     0.00000002
     0.31313131	    -0.93939394	     0.00000002
     0.33333333	    -0.93939394	     0.00000002
     0.35353535	    -0.93939394	     0.00000001
     0.37373737	    -0.93939394	    -0.00000000
     0.39393939	    -0.93939394	    -0.00000002
     0.41414141	    -0.93939394	    -0.00000002
     0.43434343	    -0.93939394	    -0.00000002
     0.45454545	    -0.93939394	    -0.00000001
     0.47474747	    -0.93939394	     0.00000000
     0.49494949	    -0.93939394	     0.00000002
     0.51515152	    -0.93939394	     0.00000003
     0.53535354	    -0.93939394	     0.00000002
     0.55555556	    -0.93939394	     0.00000001
     0.57575758	    -0.93939394	    -0.00000001
     0.59595960	    -0.93939394	    -0.00000003
     0.61616162	    -0.93939394	    -0.00000003
     0.63636364	    -0.93939394	    -0.00000001
     0.65656566	    -0.93939394	     0.00000001
     0.67676768	    -0.93939394	     0.00000003
     0.69696970	    -0.93939394	     0.00000003
     0.71717172	    -0.93939394	     0.00000002
     0.73737374	    -0.93939394	    -0.00000001
     0.75757576	    -0.93939394	    -0.00000004
     0.77777778	    -0.93939394	    -0.00000003
     0.79797980	    -0.93939394	    -0.00000000
     0.81818182	    -0.93939394	     0.00000003
     0.83838384	    -0.93939394	     0.00000005
     0.85858586	    -0.93939394	     0.00000001
     0.87878788	    -0.93939394	    -0.00000005
     0.89898990	    -0.93939394	    -0.00000005
     0.91919192	    -0.93939394	     0.00000002
     0.93939394	    -0.93939394	     0.00000007
     0.95959596	    -0.93939394	    -0.00000004
     0.97979798	    -0.93939394	    -0.00000002
     1.00000000	    -0.93939394	    -0.00000035
    -1.00000000	    -0.91919192	    -0.00000009
    -0.97979798	    -0.91919192	    -0.00000000
    -0.95959596	    -0.91919192	    -0.00000001
    -0.93939394	    -0.91919192	    -0.00000001
    -0.91919192	    -0.91919192	    -0.00000005
    -0.89898990	    -0.91919192	    -0.00000009
    -0.87878788	    -0.91919192	    -0.00000015
    -0.85858586	    -0.91919192	    -0.00000024
    -0.83838384	    -0.91919192	    -0.00000041
    -0.81818182	    -0.91919192	    -0.00000067
    -0.79797980	    -0.91919192	    -0.00000106
    -0.77777778	    -0.91919192	    -0.00000162
    -0.75757576	    -0.91919192	    -0.00000242
    -0.73737374	    -0.91919192	    -0.00000352
    -0.71717172	    -0.91919192	    -0.00000500
    -0.69696970	    -0.91919192	    -0.00000694
    -0.67676768	    -0.91919192	    -0.00000938
    -0.65656566	    -0.91919192	    -0.00001235
    -0.63636364	    -0.91919192	    -0.00001583
    -0.61616162	    -0.91919192	    -0.00001979
    -0.59595960	    -0.91919192	    -0.00002411
    -0.57575758	    -0.91919192	    -0.00002863
    -0.55555556	    -0.91919192	    -0.00003315
    -0.53535354	    -0.91919192	    -0.00003741
    -0.51515152	    -0.91919192	    -0.00004116
    -0.49494949	    -0.91919192	    -0.00004413
    -0.47474747	    -0.91919192	    -0.00004612
    -0.45454545	    -0.91919192	    -0.00004697
    -0.43434343	    -0.91919192	    -0.00004662
    -0.41414141	    -0.91919192	    -0.00004510
    -0.39393939	    -0.91919192	    -0.00004252
    -0.37373737	    -0.91919192	    -0.00003907
    -0.35353535	    -0.91919192	    -0.00003498
    -0.33333333	    -0.91919192	    -0.00003051
    -0.31313131	    -0.91919192	    -0.00002592
    -0.29292929	    -0.91919192	    -0.00002145
    -0.27272727	    -0.91919192	    -0.00001727
    -0.25252525	    -0.91919192	    -0.00001354
    -0.23232323	    -0.91919192	    -0.00001032
    -0.21212121	    -0.91919192	    -0.00000764
    -0.19191919	    -0.91919192	    -0.00000550
    -0.17171717	    -0.91919192	    -0.00000384
    -0.15151515	    -0.91919192	    -0.00000260
    -0.13131313	    -0.91919192	    -0.00000171
    -0.11111111	    -0.91919192	    -0.00000108
    -0.09090909	    -0.91919192	    -0.00000066
    -0.07070707	    -0.91919192	    -0.00000039
    -0.05050505	    -0.91919192	    -0.00000021
    -0.03030303	    -0.91919192	    -0.00000011
    -0.01010101	    -0.91919192	    -0.00000005
     0.01010101	    -0.91919192	    -0.00000001
     0.03030303	    -0.91919192	    -0.00000000
     0.05050505	    -0.91919192	     0.00000000
     0.07070707	    -0.91919192	     0.00000000
     0.09090909	    -0.91919192	    -0.00000000
     0.11111111	    -0.91919192	    -0.00000000
     0.13131313	    -0.91919192	    -0.00000000
     0.15151515	    -0.91919192	    -0.00000000
     0.17171717	    -0.91919192	     0.00000000
     0.19191919	    -0.91919192	     0.00000000
     0.21212121	    -0.91919192	     0.00000000
     0.23232323	    -0.91919192	     0.00000001
     0.25252525	    -0.91919192	     0.00000000
     0.27272727	    -0.91919192	     0.00000000
     0.29292929	    -0.91919192	    -0.00000000
     0.31313131	    -0.91919192	    -0.00000000
     0.33333333	    -0.91919192	    -0.00000001
     0.35353535	    -0.91919192	    -0.00000000
     0.37373737	    -0.91919192	    -0.00000000
     0.39393939	    -0.91919192	     0.00000000
     0.41414141	    -0.91919192	     0.00000000
     0.43434343	    -0.91919192	     0.00000001
     0.45454545	    -0.91919192	     0.00000000
     0.47474747	    -0.91919192	     0.00000000
     0.49494949	    -0.91919192	    -0.00000000
     0.51515152	    -0.91919192	    -0.00000001
     0.53535354	    -0.91919192	    -0.00000001
     0.55555556	    -0.91919192	    -0.00000000
     0.57575758	    -0.91919192	     0.00000000
     0.59595960	    -0.91919192	     0.00000000
     0.61616162	    -0.91919192	     0.00000001
     0.63636364	    -0.91919192	     0.00000000
     0.65656566	    -0.91919192	     0.00000000
     0.67676768	    -0.91919192	    -0.00000000
     0.69696970	    -0.91919192	    -0.00000001
     0.71717172	    -0.91919192	    -0.00000000
     0.73737374	    -0.91919192	     0.00000000
     0.75757576	    -0.91919192	     0.00000001
     0.77777778	    -0.91919192	     0.00000001
     0.79797980	    -0.91919192	     0.00000000
     0.81818182	    -0.91919192	    -0.00000001
     0.83838384	    -0.91919192	    -0.00000001
     0.85858586	    -0.91919192	    -0.00000000
     0.87878788	    -0.91919192	     0.00000001
     0.89898990	    -0.91919192	     0.00000001
     0.91919192	    -0.91919192	    -0.00000001
     0.93939394	    -0.91919192	    -0.00000001
     0.95959596	    -0.91919192	     0.00000001
     0.97979798	    -0.91919192	     0.00000000
     1.00000000	    -0.91919192	     0.00000008
    -1.00000000	    -0.89898990	    -0.00000026
    -0.97979798	    -0.89898990	    -0.00000000
    -0.95959596	    -0.89898990	    -0.00000002
    -0.93939394	    -0.89898990	    -0.00000002
    -0.91919192	    -0.89898990	    -0.00000012
    -0.89898990	    -0.89898990	    -0.00000024
    -0.87878788	    -0.89898990	    -0.00000037
    -0.85858586	    -0.89898990	    -0.00000061
    -0.83838384	    -0.89898990	    -0.00000104
    -0.81818182	    -0.89898990	    -0.00000174
    -0.79797980	    -0.89898990	    -0.00000278
    -0.77777778	    -0.89898990	    -0.00000429
    -0.75757576	    -0.89898990	    -0.00000645
    -0.73737374	    -0.89898990	    -0.00000946
    -0.71717172	    -0.89898990	    -0.00001357
    -0.69696970	    -0.89898990	    -0.00001897
    -0.67676768	    -0.89898990	    -0.00002584
    -0.65656566	    -0.89898990	    -0.00003426
    -0.63636364	    -0.89898990	    -0.00004424
    -0.61616162	    -0.89898990	    -0.00005564
    -0.59595960	    -0.89898990	    -0.00006818
    -0.57575758	    -0.89898990	    -0.00008142
    -0.55555556	    -0.89898990	    -0.00009474
    -0.53535354	    -0.89898990	    -0.00010742
    -0.51515152	    -0.89898990	    -0.00011867
    -0.49494949	    -0.89898990	    -0.00012772
    -0.47474747	    -0.89898990	    -0.00013390
    -0.45454545	    -0.89898990	    -0.00013677
    -0.43434343	    -0.89898990	    -0.00013609
    -0.41414141	    -0.89898990	    -0.00013193
    -0.39393939	    -0.89898990	    -0.00012461
    -0.37373737	    -0.89898990	    -0.00011467
    -0.35353535	    -0.89898990	    -0.00010281
    -0.33333333	    -0.89898990	    -0.00008980
    -0.31313131	    -0.89898990	    -0.00007641
    -0.29292929	    -0.89898990	    -0.00006332
    -0.27272727	    -0.89898990	    -0.00005111
    -0.25252525	    -0.89898990	    -0.00004017
    -0.23232323	    -0.89898990	    -0.00003073
    -0.21212121	    -0.89898990	    -0.00002290
    -0.19191919	    -0.89898990	    -0.00001661
    -0.17171717	    -0.89898990	    -0.00001173
    -0.15151515	    -0.89898990	    -0.00000807
    -0.13131313	    -0.89898990	    -0.00000541
    -0.11111111	    -0.89898990	    -0.00000353
    -0.09090909	    -0.89898990	    -0.00000224
    -0.07070707	    -0.89898990	    -0.00000137
    -0.05050505	    -0.89898990	    -0.00000081
    -0.03030303	    -0.89898990	    -0.00000046
    -0.01010101	    -0.89898990	    -0.00000025
     0.01010101	    -0.89898990	    -0.00000012
     0.03030303	    -0.89898990	    -0.00000006
     0.05050505	    -0.89898990	    -0.00000003
     0.07070707	    -0.89898990	    -0.00000002
     0.09090909	    -0.89898990	    -0.00000002
     0.11111111	    -0.89898990	    -0.00000002
     0.13131313	    -0.89898990	    -0.00000001
     0.15151515	    -0.89898990	    -0.00000001
     0.17171717	    -0.89898990	     0.00000000
     0.19191919	    -0.89898990	     0.00000001
     0.21212121	    -0.89898990	     0.00000002
     0.23232323	    -0.89898990	     0.00000001
     0.25252525	    -0.89898990	     0.00000001
     0.27272727	    -0.89898990	    -0.00000000
     0.29292929	    -0.89898990	    -0.00000001
     0.31313131	    -0.89898990	    -0.00000001
     0.33333333	    -0.89898990	    -0.00000001
     0.35353535	    -0.89898990	    -0.00000001
     0.37373737	    -0.89898990	     0.00000000
     0.39393939	    -0.89898990	     0.00000001
     0.41414141	    -0.89898990	     0.00000002
     0.43434343	    -0.89898990	     0.00000002
     0.45454545	    -0.89898990	     0.00000001
     0.47474747	    -0.89898990	    -0.00000000
     0.49494949	    -0.89898990	    -0.00000001
     0.51515152	    -0.89898990	    -0.00000002
     0.53535354	    -0.89898990	    -0.00000002
     0.55555556	    -0.89898990	    -0.00000001
     0.57575758	    -0.89898990	     0.00000001
     0.59595960	    -0.89898990	     0.00000002
     0.61616162	    -0.89898990	     0.00000002
     0.63636364	    -0.89898990	     0.00000001
     0.65656566	    -0.89898990	    -0.00000000
     0.67676768	    -0.89898990	    -0.00000002
     0.69696970	    -0.89898990	    -0.00000002
     0.71717172	    -0.89898990	    -0.00000001
     0.73737374	    -0.89898990	     0.00000001
     0.75757576	    -0.89898990	     0.00000002
     0.77777778	    -0.89898990	     0.00000002
     0.79797980	    -0.89898990	     0.00000000
     0.81818182	    -0.89898990	    -0.00000002
     0.83838384	    -0.89898990	    -0.00000003
     0.85858586	    -0.89898990	    -0.00000001
     0.87878788	    -0.89898990	     0.00000003
     0.89898990	    -0.89898990	     0.00000003
     0.91919192	    -0.89898990	    -0.00000002
     0.93939394	    -0.89898990	    -0.00000004
     0.95959596	    -0.89898990	     0.00000003
     0.97979798	    -0.89898990	     0.00000001
     1.00000000	    -0.89898990	     0.00000024
    -1.00000000	    -0.87878788	    -0.00000002
    -0.97979798	    -0.87878788	     0.00000000
    -0.95959596	    -0.87878788	     0.00000000
    -0.93939394	    -0.87878788	     0.00000000
    -0.91919192	    -0.87878788	    -0.00000000
    -0.89898990	    -0.87878788	    -0.00000001
    -0.87878788	    -0.87878788	    -0.00000001
    -0.85858586	    -0.87878788	    -0.00000002
    -0.83838384	    -0.87878788	    -0.00000004
    -0.81818182	    -0.87878788	    -0.00000007
    -0.79797980	    -0.87878788	    -0.00000013
    -0.77777778	    -0.87878788	    -0.00000020
    -0.75757576	    -0.87878788	    -0.00000032
    -0.73737374	    -0.87878788	    -0.00000049
    -0.71717172	    -0.87878788	    -0.00000073
    -0.69696970	    -0.87878788	    -0.00000106
    -0.67676768	    -0.87878788	    -0.00000150
    -0.65656566	    -0.87878788	    -0.00000205
    -0.63636364	    -0.87878788	    -0.00000273
    -0.61616162	    -0.87878788	    -0.00000354
    -0.59595960	    -0.87878788	    -0.00000445
    -0.57575758	    -0.87878788	    -0.00000546